HEADER
"PSFversion" "1.00"
"NM3n NM2n" "gpdk090_nmos1v_spectre"
"PM2n PM0n" "gpdk090_pmos1v_spectre"
"V1n V0n" "analogLib_vdc_spectre"
